# OOMMF: rectangular mesh v1.0
# Segment count: 1
# Begin: Segment
# Begin: Header
# Title: C:/Users/DRA/Dropbox/My PC (DESKTOP-MR1852M)/Desktop/oommf20b0_20220930_86_x64/oommf/app/oxs/examples/stdprob1-Oxs_MinDriver-Magnetization-00009-0004289.omf
# Desc: Oxs vector field output
# Desc: MIF source file: C:/Users/DRA/Dropbox/My PC (DESKTOP-MR1852M)/Desktop/oommf20b0_20220930_86_x64/oommf/app/oxs/examples/stdprob1.mif
# Desc: Iteration: 4289, State id: 9174
# Desc: Stage: 9, Stage iteration: 431
# Desc: Stage simulation time: 0 s
# Desc: Total simulation time: -2 s
# meshtype: rectangular
# meshunit: m
# xbase: 5.0000000000000001e-09
# ybase: 5.0000000000000001e-09
# zbase: 5.0000000000000001e-09
# xstepsize: 1e-08
# ystepsize: 1e-08
# zstepsize: 1e-08
# xnodes: 200
# ynodes: 100
# znodes: 2
# xmin: 0
# ymin: 0
# zmin: 0
# xmax: 1.9999999999999999e-06
# ymax: 9.9999999999999995e-07
# zmax: 2e-08
# valueunit: A/m
# valuemultiplier: 1
# ValueRangeMinMag: 860000.00000000012
# ValueRangeMaxMag: 860000.00000000012
# End: Header
# Begin: Data Text
 632013.26796805125  575156.80183406908  96715.471442523936
 701956.06671103102  491326.03612030379  73867.493783723985
 748305.21753277711  419449.65440819249  60838.218498499860
 778006.46326666605  362793.01439922955  51837.938022400318
 797898.36479338398  317715.93018669100  44886.380625416779
 811895.53401505563  280859.38712656684  39289.267100531208
 822202.08219242760  249766.95415514300  34643.969900968703
 830092.76828465296  222722.50185368134  30670.559329080443
 836327.59457676020  198539.14506844452  27172.825118882265
 841369.08582693583  176412.18942265573  24016.678326768597
 845499.24703126668  155836.87226938974  21116.167049333842
 848887.87867088802  136564.60495087551  18424.932028394436
 851638.75616596779  118565.13091120731  15929.178512769215
 853824.39304451749  101970.00526665825  13639.056715152135
 855510.84765347012  86989.424398854040  11577.114925452113
 856770.32602424268  73818.949418726508  9765.8154307998575
 857681.89844172157  62563.871787561679  8217.2399474640206
 858324.72676158557  53204.007528484879  6927.9876269080178
 858770.00202288886  45601.664323120363  5879.7820171097283
 859075.84473956178  39538.016529556815  5043.6330077677931
 859286.13847389363  34757.728037805384  4385.4952142587208
 859432.13757688773  31006.698585460159  3871.1164865194010
 859535.22108143975  28056.509351109704  3469.2943823713872
 859609.65151537897  25715.793615018945  3153.5662921112826
 859664.81877923454  23832.208435990138  2902.6185297809602
 859706.87514462159  22288.991807965205  2699.9394909384523
 859739.85901135951  20999.012398389998  2533.0427197722106
 859766.43671775877  19898.469793940912  2392.7376596474901
 859788.38346501917  18941.277124041466  2272.3731030749100
 859806.89592579613  18094.345593634724  2167.1123610754798
 859822.79210012883  17333.974123744581  2073.5298927264371
 859836.64151237207  16643.109360610048  1989.1765974040352
 859848.84951472993  16009.352509426337  1912.2291766766216
 859859.71044279949  15423.603459923994  1841.4161768147094
 859869.44381584635  14879.047270227704  1775.8221075679942
 859878.21840086149  14370.432642054728  1714.6968946332813
 859886.16613460623  13893.669877399412  1657.4762944035199
 859893.39325135271  13445.453509009896  1603.7526652706947
 859899.98714260745  13023.047372899682  1553.1739332164486
 859906.02038578328  12624.173874790960  1505.4362371338009
 859911.55484181154  12246.851835453997  1460.2977979158779
 859916.64332471194  11889.368533792494  1417.5503617470026
 859921.33167945931  11550.202523614122  1377.0055514987339
 859925.66000090179  11227.987321106746  1338.4964440071594
 859929.66327549657  10921.507987205479  1301.8764058946124
 859933.37256358017  10629.648649088458  1267.0126376333480
 859936.81501521391  10351.422968152687  1233.7844317093670
 859940.01495951624  10085.914491472193  1202.0816517624485
 859942.99422999634  9832.2710206078082  1171.8025967312553
 859945.77202440298  9589.7371540862405  1142.8554891698325
 859948.36592275440  9357.5840062767547  1115.1539579888315
 859950.79154096032  9135.1537727942923  1088.6200546892701
 859953.06257062894  8921.8729699512296  1063.1830060115162
 859955.19170409825  8717.1788774903616  1038.7750408123757
 859957.19047857122  8520.5423669827196  1015.3334304060776
 859959.06921555253  8331.4837237285192  992.80052472894636
 859960.83733338304  8149.5505772509096  971.12216295784299
 859962.50336137693  7974.3238279203933  950.24834711958283
 859964.07503151777  7805.4153349363960  930.13259030206927
 859965.55921583553  7642.4818411838023  910.73261851629888
 859966.96225454169  7485.1954463450629  892.00887083075827
 859968.29013816710  7333.2268753479566  873.92244055727758
 859969.54829693714  7186.2728283921897  856.43727029628235
 859970.74167955830  7044.0515597710364  839.51934671489119
 859971.87483557768  6906.2968555475818  823.13760972315094
 859972.95173476543  6772.7845338675043  807.26343451293133
 859973.97615489049  6643.2882557970197  791.86962201157064
 859974.95178300515  6517.5676006941385  776.92881788980969
 859975.88181890105  6395.4210870037114  762.41650250647729
 859976.76913800533  6276.6691502233807  748.30965305030634
 859977.61665197753  6161.1072422827292  734.58500750899702
 859978.42699254514  6048.5491853329959  721.22131170434250
 859979.20237857371  5938.8492398432982  708.19913777066586
 859979.94498150062  5831.8529689716534  695.50022525333623
 859980.65692703053  5727.3971471231653  683.10560833022214
 859981.34010804188  5625.3379651657851  670.99832634540473
 859981.99623281532  5525.5461817508176  659.16220736846753
 859982.62694683764  5427.8898178855225  647.58145509093004
 859983.23378752964  5332.2417100208322  636.24106198100776
 859983.81821194408  5238.4760763822424  625.12559003128854
 859984.38160409965  5146.4676516460031  614.22123461547108
 859984.92517059646  5056.1101169769718  603.51454727425744
 859985.44996918808  4967.3131092511012  592.99390219714917
 859985.95708770922  4879.9727646542760  582.64719409505244
 859986.44764370704  4793.9710287010885  572.46042070054762
 859986.92262573156  4709.2030704340614  562.42258604914127
 859987.38284075400  4625.5890272189617  552.52227264149633
 859987.82906103588  4543.0484890407215  542.74977003469598
 859988.26209363714  4461.4875586056542  533.09467271222650
 859988.68271523935  4380.8107437564313  523.54458741457029
 859989.09162446950  4300.9298706384106  514.09062206702254
 859989.48945766885  4221.7625316258582  504.72117505741232
 859989.87682855548  4143.2239215241125  495.42703015372126
 859990.25429405679  4065.2342776513879  486.19904480303768
 859990.62234484754  3987.7216482108811  477.02723022415773
 859990.98143131402  3910.6165719120631  467.90472604212499
 859991.33199807536  3833.8455023198735  458.82114220525563
 859991.67449165159  3757.3280078239454  449.76803645957733
 859992.00932551571  3680.9846859467079  440.73575288771212
 859992.33687265031  3604.7389218481185  431.71474757978973
 859992.65747180523  3528.5155848291647  422.69652228205507
 859992.97143674956  3452.2392125833480  413.67113655081852
 859993.27906209172  3375.8320701459343  404.63052993927118
 859993.58060124051  3299.2200941000428  395.56469561251788
 859993.87627456593  3222.3306169710877  386.46557622240687
 859994.16626553063  3145.0938296623299  377.32487012659919
 859994.45074035344  3067.4376975607997  368.13281490150172
 859994.72985254612  2989.2858367774893  358.88164060688064
 859995.00374549779  2910.5566820236004  349.56055559705271
 859995.27253905986  2831.1661171429150  340.16008723538931
 859995.53630368738  2751.0351095777673  330.67137652418364
 859995.79505747952  2670.0914747324218  321.08405491639604
 859996.04880055913  2588.2588124308627  311.39002296492208
 859996.29754405923  2505.4463652896425  301.57755321717553
 859996.54128533334  2421.5544238057632  291.63579452466098
 859996.77994369552  2336.4960038435297  281.55443349394341
 859997.01337184722  2250.1945523254885  271.32264850369859
 859997.24142109929  2162.5594769998129  260.93027399081296
 859997.46395064553  2073.4792605330686  250.36416381885320
 859997.68074485683  1982.8512914182870  239.61265276525492
 859997.89149404026  1890.5920569517091  228.66455656933942
 859998.09587147099  1796.6045534416128  217.50752388168345
 859998.29355568008  1700.7623836699734  206.12771010783919
 859998.48414113675  1602.9474140359771  194.51101463183258
 859998.66712653020  1503.0574762489600  182.64395604421267
 859998.84198250715  1400.9691567785910  170.51149062237181
 859999.00813779421  1296.5366107822135  158.09752350901837
 859999.16490619862  1189.6316766698776  145.38608952138895
 859999.31150397891  1080.1356645312230  132.36173438509590
 859999.44709852932  967.89852018539534  119.00705191548867
 859999.57075952482  852.76292851234882  105.30347120958685
 859999.68143214600  734.58366871141061  91.232894445696900
 859999.77795987460  613.20023321524445  76.775261092439493
 859999.85907373636  488.42646420266300  61.909147812942209
 859999.92335374095  360.08169444555188  46.612585491817619
 859999.96922827174  227.97998392598743  30.862579018060689
 859999.99496327119  91.918375364207975  14.635098010555373
 859999.99864049186 -48.311138540190171 -2.0947868493485191
 859999.97814522765 -192.91363753658118 -19.352946755756847
 859999.93114728574 -342.11878613996868 -37.167188636516542
 859999.85506770969 -496.18111917355503 -55.568115486693692
 859999.74704555096 -655.37635081615429 -74.588387044896265
 859999.60391705821 -819.98609721173875 -94.261888240558392
 859999.42219583015 -990.29514148774149 -114.62273323220508
 859999.19805092900 -1166.5913420908541 -135.70703687379731
 859998.92724378826 -1349.1910430590990 -157.55336484205333
 859998.60505363846 -1538.4512313864013 -180.20434121061223
 859998.22624887479 -1734.7487362904878 -203.70471546867080
 859997.78504218173 -1938.4767603339187 -228.10171238149690
 859997.27500874409 -2150.0564841172754 -253.44555592453264
 859996.68909887958 -2369.9067271398198 -279.78754436953210
 859996.01945899054 -2598.4903729748967 -307.18475407130904
 859995.25729154644 -2836.3256805220121 -335.69730523459401
 859994.39291685005 -3083.9332823353716 -365.38621817022732
 859993.41555275733 -3341.8761611688133 -396.32010537562218
 859992.31316062005 -3610.7659286895278 -428.57211102643919
 859991.07245959819 -3891.2269765785245 -462.21467646882343
 859989.67866791086 -4183.9278597061066 -497.32517355325308
 859988.11536448519 -4489.5755060394486 -533.98840513291680
 859986.36417826009 -4808.9404108430444 -572.29326591489780
 859984.40478325577 -5142.8180681176182 -612.33316735622168
 859982.21479370794 -5492.0184742760721 -654.19537371241086
 859979.76922598563 -5857.4192254280033 -697.96994073029123
 859977.04068125947 -6239.8959388246603 -743.77400878280889
 859973.99895036058 -6640.3558812909305 -791.70897107859832
 859970.61083000794 -7059.7321142082110 -841.83795271062763
 859966.83998830058 -7498.9594971081069 -894.27456494025068
 859962.64630435826 -7959.0232389799767 -949.16293996613672
 859957.98636585462 -8440.8832532365195 -1006.5661875801321
 859952.81144129473 -8945.6410327170979 -1066.5836708994846
 859947.06637602986 -9474.5674734830900 -1129.4257172635464
 859940.68685802130 -10029.274143610535 -1195.3017640700537
 859933.59119120543 -10612.239481331619 -1264.5608676111538
 859925.66984216962 -11227.308957158515 -1337.8639977878970
 859916.75982384279 -11881.092366136747 -1416.2691308803871
 859906.60094975436 -12585.017847930618 -1501.6553557046520
 859894.75838626618 -13358.638811358886 -1597.2692111235228
 859880.47674528568 -14235.405924468545 -1708.4877716595079
 859862.41952317185 -15271.490545391482 -1844.1985464965437
 859838.18691663782 -16559.499572882029 -2018.7356946753905
 859803.41454835853 -18248.427484636130 -2254.6009229119768
 859750.05466158851 -20570.761428967886 -2585.9782729181211
 859663.06353055162 -23875.438012318289 -3062.7864742409870
 859514.15139984980 -28658.852982733169 -3754.1562447991514
 859250.72998307587 -35575.724954612488 -4748.7701044561409
 858778.93908897822 -45397.476110409334 -6148.4095515922527
 857944.28647570114 -58879.526156776483 -8050.0126244543717
 856523.84678072226 -76526.576720691402 -10515.842874740350
 854253.09425963333 -98327.371015290555 -13541.752363102201
 850895.92316661857 -123634.89143489457 -17045.279648918204
 846316.37049161526 -151367.15513741755 -20894.625708638250
 840473.58752170624 -180500.64071809358 -24973.333352810056
 833305.79632123315 -210585.08130158935 -29246.766498856367
 824552.36046812369 -242014.63702411385 -33798.229428954037
 813568.44542945351 -276040.50497720810 -38833.287440422631
 799103.03641599871 -314703.94436526910 -44673.981148680039
 778914.60858198768 -360848.50295661774 -51772.487399556201
 749023.31290222809 -418162.00100072316 -60865.570300803905
 702522.73146222916 -490500.51046881737 -73966.620908882658
 632434.27790658874 -574663.48215317051 -96895.647004209910
 569581.10329425649  639420.18419736030  79493.363314879171
 648037.63050325471  562927.08119300439  52538.849542521268
 705678.71507030900  489814.17901567882  41226.461549764550
 744427.85018387239  429202.47207247373  34819.733449517793
 771242.62439492135  379311.83676197258  30122.164741148736
 790594.56409917551  337439.25216356950  26362.593122178594
 805125.03479247482  301386.53411652934  23234.358257597913
 816416.76256294642  269520.71951678611  20548.760483098155
 825441.00448687584  240659.10272424930  18175.378611096949
 832801.11662298208  213975.52904214920  16024.141869277688
 838868.43247488316  188951.63833658615  14036.786208116568
 843865.77354717767  165354.58842962611  12182.623727775795
 847928.06332129543  143208.56715413291  10454.937869618758
 851151.07594249991  122732.44124060079  8865.3138155152519
 853627.30074773193  104236.05779680521  7434.7611341648962
 855463.53791411093  87999.429031053354  6183.5094955281220
 856779.95922691748  74174.529928742428  5122.5557070549066
 857697.76208328851  62741.441634173716  4249.7551675607301
 858325.55348902836  53522.294472647241  3550.8058432803673
 858751.15946681285  46232.319847603765  3003.1176989012838
 859040.05298372672  40540.448166305650  2580.5875670409873
 859238.20445229684  36119.410327354701  2257.4780612542950
 859376.60185947525  32677.405681733922  2010.8044092471068
 859475.62507069542  29972.190477366439  1821.4574729910928
 859548.51061326906  27812.848251053991  1674.3281264295636
 859603.82081430533  26054.636419225688  1557.9353355315945
 859647.10734950041  24590.816425878224  1463.7531026656652
 859681.99148532364  23344.239944011268  1385.6324420365290
 859710.85536770697  22259.937539072664  1319.2208618188613
 859735.28438120650  21299.051920474703  1261.4187469300637
 859756.34909091156  20434.183800839208  1210.0951452401287
 859774.78632330254  19645.926840516731  1163.7702936677181
 859791.11404736678  18920.431590491527  1121.3713111882221
 859805.70558480744  18247.672001014234  1082.1785226260486
 859818.83760825009  17620.244052655231  1045.7024063911069
 859830.72173051431  17032.520582294226  1011.5389249251028
 859841.52364297805  16480.139577922131  979.39716883721894
 859851.37706812751  15959.592705855455  949.08098070241942
 859860.39242969605  15467.978603830019  920.41760127436783
 859868.66195407975  15002.875730653319  893.25758385086431
 859876.26487049495  14562.162772676622  867.48357245918999
 859883.26926380571  14143.995025083876  842.99757998822622
 859889.73461705644  13746.722668250917  819.70488001863680
 859895.71331431554  13368.851082862220  797.52391119103788
 859901.25135056721  13009.041373268708  776.38152819301865
 859906.38963069289  12666.065604881245  756.21055264369511
 859911.16417498887  12338.826228184287  736.94947314793251
 859915.60749380419  12026.291577087195  718.53981434246225
 859919.74881108454  11727.501975297084  700.92945483148242
 859923.61387880729  11441.605859162029  684.06796109826917
 859927.22637612035  11167.776425170618  667.91226220740930
 859930.60734690877  10905.269223543788  652.41944993908442
 859933.77531853039  10653.431232294290  637.54952613240766
 859936.74760151876  10411.611908448942  623.26718987465654
 859939.53986216162  10179.206518597479  609.53778015150579
 859942.16620694089  9955.6603019874474  596.32815246951282
 859944.63943835779  9740.4569138207444  583.60975238020490
 859946.97123273415  9533.1118340433823  571.35488687706641
 859949.17220113974  9333.1746395791324  559.53706006156915
 859951.25179870985  9140.2451124646195  548.13238907849575
 859953.21864517929  8953.9513902170347  537.11851426245619
 859955.08104703738  8773.9048481314221  526.47421521247645
 859956.84647776373  8599.7532625472140  516.17811193942998
 859958.52176433499  8431.1680292482470  506.21197342285325
 859960.11316248425  8267.8413317250252  496.55742931573911
 859961.62618342147  8109.5085880368915  487.19854878965327
 859963.06601613911  7955.9091499981650  478.11893796035662
 859964.43779685406  7806.7585113445812  469.30404480274376
 859965.74593792739  7661.8230873928214  460.73897363495990
 859966.99443453993  7520.8914292270929  452.41058110099743
 859968.18733643251  7383.7227345310248  444.30605440671832
 859969.32829047332  7250.0995951513469  436.41206730384522
 859970.42038075975  7119.8504413749324  428.71882622514386
 859971.46661343519  6992.7955425655355  421.21400384177758
 859972.46998038981  6868.7387924944196  413.88794134213998
 859973.43307500903  6747.5162626443207  406.73021580076204
 859974.35829510097  6628.9734935835259  399.73159830062480
 859975.24793416739  6512.9550454316168  392.88311682502075
 859976.10413758457  6399.3110046126330  386.17484207526172
 859976.92893895484  6287.8928677902722  379.59979866577623
 859977.72427888180  6178.5520052959073  373.14773673283645
 859978.49184256059  6071.1627323327812  366.81231237148893
 859979.23309444624  5965.6201511941345  360.58632794721723
 859979.94954356272  5861.8034874474097  354.46145908149015
 859980.64278780995  5759.5681383775645  348.43238182344334
 859981.31420306151  5658.7916561724414  342.48878434012113
 859981.96491597011  5559.3795807631041  336.62730777698062
 859982.59599046072  5461.2395768984970  330.84103662587626
 859983.20856413874  5364.2598186527166  325.12201908707777
 859983.80374476418  5268.3239546042341  319.46736321138314
 859984.38249923463  5173.3302127550533  313.86608606771802
 859984.94573740184  5079.1777015443877  308.31625643832484
 859985.49431118253  4985.7677911879482  302.80997911859282
 859986.02901385888  4893.0041323820333  297.34077224068079
 859986.55052513117  4800.8026650395241  291.90693244641631
 859987.05946522451  4709.0838575611360  286.49882857291476
 859987.55646737642  4617.7586857859778  281.11561809287315
 859988.04215478792  4526.7331822391034  275.74892858827593
 859988.51712436229  4435.9104340397325  270.39390068477951
 859988.98190059257  4345.1996877241963  265.04576206468192
 859989.43695811403  4254.5126374435386  259.69729296015390
 859989.88275267719  4163.7568790649020  254.34560906466425
 859990.31968899607  4072.8428823137269  248.98207627916136
 859990.74814151949  3981.6790281020290  243.60440610482235
 859991.16840696183  3890.1825131832529  238.20588340276475
 859991.58075241384  3798.2690935058645  232.78070710852953
 859991.98540717561  3705.8545567977994  227.32669886631894
 859992.38259248459  3612.8482357203929  221.83445888080007
 859992.77251902560  3519.1517114993480  216.30134277426478
 859993.15536085342  3424.6648498255863  210.72054836828360
 859993.53122274345  3329.2935105162514  205.08475542388399
 859993.90013009741  3232.9524923126469  199.39209211998755
 859994.26208052947  3135.5533577281076  193.63291658295219
 859994.61710441194  3036.9855336918877  187.80389726682640
 859994.96520540130  2937.1303740102567  181.89702178750878
 859995.30628118012  2835.8828716897947  175.90530773850904
 859995.64011807088  2733.1552189355216  169.82478821093159
 859995.96651538438  2628.8395083740747  163.64629224658489
 859996.28528754960  2522.8016111352758  157.36469359404779
 859996.59614183812  2414.9186457210208  150.97147759176977
 859996.89863881969  2305.0949663304186  144.46040270136263
 859997.19232924504  2193.2145894901987  137.82445354971611
 859997.47677092883  2079.1277656808488  131.05483529323797
 859997.75141012366  1962.6914920616448  124.14362018894847
 859998.01554323477  1843.7877918501779  117.08235105340178
 859998.26843953750  1722.2692053759786  109.86255723508459
 859998.50931448548  1597.9599402489073  102.47386063452873
 859998.73720831389  1470.7115982203745  94.907852278135437
 859998.95103406487  1340.3821714490830  87.154704111846499
 859999.14963210747  1206.7969083585574  79.204002877656905
 859999.33171666344  1069.7660489951211  71.045708777131324
 859999.49581638246  929.12233123520446  62.667867237566917
 859999.64032947167  784.67238953418837  54.059418211444132
 859999.76349305082  636.19821509978181  45.207604466583632
 859999.86333682598  483.48474009878998  36.099124632551593
 859999.93767663871  326.31603401023614  26.721219332071293
 859999.98410798225  164.44832956999889  17.059230899617635
 859999.99996747496 -2.3556294999871894  7.0989011354901059
 859999.98232229927 -174.34323989488402 -3.1748558680107952
 859999.92794340441 -351.77760735985021 -13.778757731056382
 859999.83325773780 -534.96269167733692 -24.730176306092275
 859999.69430550933 -724.22023852818427 -36.048257274829190
 859999.50670667726 -919.88261534188166 -47.751919061683914
 859999.26564715034 -1122.2758100726446 -59.861243087455613
 859998.96583279676 -1331.7376814515330 -72.396603612002806
 859998.60141580238 -1548.6358348354693 -85.380999464717178
 859998.16588496848 -1773.3881756918772 -98.837586598924588
 859997.65204932902 -2006.4265727284023 -112.79206325369540
 859997.05195046461 -2248.2078707750588 -127.27089131609191
 859996.35678671533 -2499.2127121236231 -142.30037385253794
 859995.55688299891 -2759.9284924583485 -157.91205562160798
 859994.64151056041 -3030.8827609682153 -174.13446588299610
 859993.59866105311 -3312.6697512936853 -191.00034120159276
 859992.41517450509 -3605.8771790496130 -208.54757610099136
 859991.07644985768 -3911.1360865993111 -226.80636512084774
 859989.56620961090 -4229.1355954963974 -245.81033400794834
 859987.86653616431 -4560.5771956253648 -265.60538297662652
 859985.95762571075 -4906.1958285481232 -286.23256463353243
 859983.81757082976 -5266.7659013547236 -307.72267107219733
 859981.42205544491 -5643.1145439343527 -330.11776531069575
 859978.74431326555 -6036.0908992326886 -353.46291916600734
 859975.75514857110 -6446.5362100413677 -377.79298213605944
 859972.42229518527 -6875.3449199875840 -403.14263317351475
 859968.71093397168 -7323.3669932370249 -429.54679090561206
 859964.58327018167 -7791.4467592978372 -457.03209926954628
 859959.99856277194 -8280.4023468596606 -485.60157692708839
 859954.91364561766 -8790.9610560332021 -515.26737687442142
 859949.28244070988 -9323.8115254499007 -546.04793387071936
 859943.05711798952 -9879.5012995031957 -577.90019858820017
 859936.18715086917 -10458.536125003620 -610.77864021612413
 859928.61893650750 -11061.406580654746 -644.68473578058797
 859920.29369580117 -11688.740255858567 -679.58910988174728
 859911.14000059001 -12341.772338400950 -715.51270634058972
 859901.06194389833 -13022.949136929246 -752.63771708275749
 859889.90952804231 -13737.439994021470 -791.34964837890936
 859877.42576214590 -14495.502158928037 -832.51536075085539
 859863.14860691607 -15316.495917753089 -877.84998836307727
 859846.22618091956 -16235.813290850652 -930.42421269155989
 859825.08029061544 -17315.890107625364 -995.61690294266987
 859796.77849433210 -18663.545652825014 -1082.4760659790661
 859755.84771454264 -20455.528839683917 -1205.6784551079161
 859691.95934419567 -22974.072112634949 -1388.1820851121788
 859585.34213920392 -26650.872439254774 -1664.5052280987377
 859397.80163337023 -32110.364303539169 -2083.9990461900834
 859056.15660670609 -40189.087854421021 -2712.3815262735393
 858425.55550125672 -51888.338187264177 -3628.5014155929493
 857276.94795844960 -68206.385364067042 -4911.5674294832406
 855270.24322311219 -89827.798000524024 -6616.4766648044097
 851992.73914912902 -116755.80294806387 -8743.8501312121480
 847073.36438301392 -148124.00191950763 -11224.767623044097
 840310.04718716827 -182440.72969798237 -13942.910154156260
 831678.02033072000 -218242.31312795164 -16791.761650757900
 821158.01161542232 -254774.66681872218 -19732.944717275313
 808472.18319764256 -292321.48611375049 -22822.746370360404
 792835.84698612953 -332151.30220583151 -26207.483220581442
 772707.00113798457 -376320.35148931918 -30114.505596107068
 745389.63813514705 -427524.21506675053 -34890.297968253588
 706318.31392513227 -488882.06231844710 -41337.253866461557
 648446.32597263448 -562443.28923448746 -52677.402438641118
 569818.54373978928 -639185.27539184736 -79680.681049512103
 518511.02073445596  682505.00491179444  70237.024760905217
 599278.51735268231  615225.85545510554  44299.045352065463
 663797.72132845514  545725.89364800672  33997.561107163434
 709882.26677918178  484613.35442517116  28584.331813676330
 743104.09017748630  432186.94870209182  24713.407961383342
 767769.61243461096  386862.34421043046  21618.252797532408
 786669.36656229058  346971.21100981766  19033.823653306896
 801575.78525675018  311116.99725510244  16806.977985137237
 813620.12978609605  278212.70560315048  14831.549070511852
 823522.72535332514  247468.11833714671  13032.698619390112
 831731.38683607301  218389.14831843183  11361.340083492221
 838513.47748931102  190785.89780929021  9792.3064640584817
 844029.14403751330  164759.02995182757  8322.6236629778123
 848394.69556479482  140633.93126550721  6966.9156969154892
 851730.56527900859  118836.00563537297  5748.7332630681276
 854183.74383570580  99740.340367026554  4690.0181542428509
 855923.45801604260  83549.836862709431  3802.4699964986712
 857120.94181456184  70243.722526538011  3083.9177247977937
 857928.60722734092  59599.955409463502  2519.9635205262598
 858468.22718611616  51263.451167653926  2088.4171778053815
 858829.24838874431  44824.202968857659  1764.3526380508158
 859073.48158590985  39880.210034429583  1523.8384013470773
 859241.93152722006  36076.185730441306  1346.0789407458092
 859361.15677613067  33119.902382809662  1214.2036665837707
 859448.16172220814  30783.333857119698  1115.1990668097665
 859513.79903552390  28895.482790990962  1039.3949185400388
 859565.01554514526  27331.741295606891  979.77988570823049
 859606.28363952099  26003.261136383171  931.41705194512599
 859640.50608867093  24847.667437894572  890.90656597173131
 859669.58599562978  23821.636195277053  855.89899081994724
 859694.78908575256  22895.180024179394  824.83359766306467
 859716.97351115628  22047.466012838413  796.68013058199017
 859736.73252474284  21263.977613559240  770.71637390428214
 859754.48885521526  20534.401306655440  746.49600460594070
 859770.55271395599  19851.269525607011  723.72934199151496
 859785.15931090550  19209.027857879391  702.19475665640687
 859798.49298638455  18603.405210401404  681.74256121186227
 859810.70307994401  18030.980247983396  662.28428117331373
 859821.91343118530  17488.933137503114  643.74004640119074
 859832.22807807871  16974.911841514244  626.04014236490036
 859841.73738312686  16486.831262934327  609.13781124710465
 859850.51994031656  16022.850158909727  592.98495118407595
 859858.64471923257  15581.320472167436  577.54129546113643
 859866.17311228043  15160.726615553971  562.76614157687902
 859873.15943542484  14759.698308077352  548.62409261274649
 859879.65221577371  14376.974388687755  535.08196312447524
 859885.69449077605  14011.417281223852  522.10716061957805
 859891.32556030154  13661.934853850391  509.66871282141966
 859896.58073222998  13327.516795615102  497.73595616973563
 859901.49127079803  13007.260965164001  486.28432211695377
 859906.08605588798  12700.286192983525  475.28376801069129
 859910.39069587586  12405.805681993485  464.71351043854179
 859914.42803424632  12123.111879404290  454.55131116806382
 859918.21944965562  11851.499337789712  444.77182948681161
 859921.78433121962  11590.310588321492  435.35396832286199
 859925.14010281581  11338.946350591625  426.28020224229130
 859928.30265692121  11096.844450599843  417.53182594705396
 859931.28637875011  10863.487060974378  409.09151073000811
 859934.10468259477  10638.366824175328  400.94271180037038
 859936.76930298400  10421.050670942397  393.06953603791817
 859939.29100251128  10211.131747693271  385.45885565464221
 859941.68016080442  10008.184942065902  378.09572587213592
 859943.94625092822  9811.8137703742705  370.96754109335910
 859946.09773036302  9621.6660304817069  364.06197154786167
 859948.14253078541  9437.3961466140190  357.36791084483400
 859950.08757022244  9258.7135144822860  350.87322992442546
 859951.93943048618  9085.3256360965534  344.56905214354532
 859953.70453210641  8916.9230844761296  338.44380983848299
 859955.38849853759  8753.2418637214414  332.48940538385915
 859956.99636597547  8594.0485658482685  326.69627733948886
 859958.53327540588  8439.0740298566743  321.05502844348996
 859960.00383763819  8288.0770812721621  315.55960513607124
 859961.41193199879  8140.8699811742126  310.19973081001757
 859962.76145396545  7997.2436281983828  304.97019709913104
 859964.05614211981  7856.9858275122406  299.86213387167322
 859965.29931367200  7719.9111372733705  294.87010582663351
 859966.49397976149  7585.8512535091140  289.98778660623549
 859967.64311558800  7454.6261440064673  285.20742208680554
 859968.74943867826  7326.0695144929832  280.52512299579342
 859969.81552462734  7200.0172070937142  275.93252112812394
 859970.84387008252  7076.2999590433374  271.42635814041404
 859971.83663224685  6954.7760939358159  266.99970694925656